/*--------------------------------*- C++ -*----------------------------------*\
| =========                 |                                                 |
| \\      /  F ield         | OpenFOAM: The Open Source CFD Toolbox           |
|  \\    /   O peration     | Version:  1.6                                   |
|   \\  /    A nd           | Web:      www.OpenFOAM.org                      |
|    \\/     M anipulation  |                                                 |
\*---------------------------------------------------------------------------*/
FoamFile
{
    version     2.0;
    format      ascii;
    class       volVectorField;
    location    "0";
    object      U.uniform;
}
// * * * * * * * * * * * * * * * * * * * * * * * * * * * * * * * * * * * * * //

InflowSpeed 1.9;


dimensions      [ 0 1 -1 0 0 0 0 ];

internalField   uniform ( $InflowSpeed 0 0 );

boundaryField
{
    bottom
    {
      // type cyclic;
      type slip;
      // type zeroGradient
    }
 
    top
    {
      // type cyclic;
      type slip;     
      // type zeroGradient       
    }

    // inlet
    // west
    // {
    //   type            fixedValue;
    //   value           uniform ( $InflowSpeed 0 0 );
    // }
    // inlet (for turbulent inflow generator)
    // Description
    //     direction: It is +1 or −1 depending on wheather the flow goes in positive or negative x-direction,respectively.
    //     LField: The integral length field.
    //     refField: The external velocity field.
    //     RField: The Reynolds stress tensor field.
    //     value: The value of the field; at the initial time it should be equal to the refField field.    
    west
    {
      type decayingTurbulenceInflowGenerator;
      direction 1;
      // LField    nonuniform List<scalar> ...
      // refField  nonuniform List<vector> ...
      // RField    nonuniform List<symmTensor> ...
      // value     nonuniform List<vector> ...
        LField          uniform 4.0;
        refField        uniform ( $InflowSpeed 0 0 );
        RField          uniform (0.0361 0.027075 0.020216 0.02030625 0.015162 0.01132096);
        value           uniform ( $InflowSpeed 0 0 );
    }

    // outlet
    east
    {
      type            zeroGradient;
    }

    north
    {
      // type cyclic;
      type slip;  
      // type zeroGradient          
    }

    south
    {
      // type cyclic;
      type slip; 
      // type zeroGradient           
    }
}


// ************************************************************************* //
